    1C
    1UKotoba CAE independent uniaxial bar comparison                    
    1UUSER                                                              
    1UDATE              12.july.2026                                    
    1UTIME              11:41:38                                        
    1UHOST                                                              
    1UPGM               CalculiX                                        
    1UVERSION           Version 2.16                             
    1UCOMPILETIME       Mo 25. Nov 18:56:47 CET 2019                    
    1UDIR                                                               
    1UDBN                                                               
    1UMAT    1STEEL                                                     
    2C                             9                                     1
 -1         1 0.00000E+00 0.00000E+00 0.00000E+00
 -1         2 2.50000E-01 0.00000E+00 0.00000E+00
 -1         3 5.00000E-01 0.00000E+00 0.00000E+00
 -1         4 7.50000E-01 0.00000E+00 0.00000E+00
 -1         5 1.00000E+00 0.00000E+00 0.00000E+00
 -1         6 1.25000E+00 0.00000E+00 0.00000E+00
 -1         7 1.50000E+00 0.00000E+00 0.00000E+00
 -1         8 1.75000E+00 0.00000E+00 0.00000E+00
 -1         9 2.00000E+00 0.00000E+00 0.00000E+00
 -3
    3C                             8                                     1
 -1         1   11    0    1
 -2         1         2
 -1         2   11    0    1
 -2         2         3
 -1         3   11    0    1
 -2         3         4
 -1         4   11    0    1
 -2         4         5
 -1         5   11    0    1
 -2         5         6
 -1         6   11    0    1
 -2         6         7
 -1         7   11    0    1
 -2         7         8
 -1         8   11    0    1
 -2         8         9
 -3
    1PSTEP                         1           1           1          
  100CL  101 1.000000000           9                     0    1           1
 -4  DISP        4    1
 -5  D1          1    2    1    0
 -5  D2          1    2    2    0
 -5  D3          1    2    3    0
 -5  ALL         1    2    0    0    1ALL
 -1         1 0.00000E+00-3.30872E-24-3.30872E-24
 -1         2 1.25000E-06-1.65436E-24 0.00000E+00
 -1         3 2.50000E-06-1.65436E-24 1.65436E-24
 -1         4 3.75000E-06 1.65436E-24-1.65436E-24
 -1         5 5.00000E-06 3.30872E-24 1.65436E-24
 -1         6 6.25000E-06 3.30872E-24 0.00000E+00
 -1         7 7.50000E-06-3.30872E-24 1.65436E-24
 -1         8 8.75000E-06-3.30872E-24 1.65436E-24
 -1         9 1.00000E-05 0.00000E+00 3.30872E-24
 -3
    1PSTEP                         2           1           1          
  100CL  101 1.000000000           9                     0    1           1
 -4  STRESS      6    1
 -5  SXX         1    4    1    1
 -5  SYY         1    4    2    2
 -5  SZZ         1    4    3    3
 -5  SXY         1    4    1    2
 -5  SYZ         1    4    2    3
 -5  SZX         1    4    3    1
 -1         1 9.99960E+05-3.72861E-11-3.72861E-11-6.04129E-11 2.02016E-10 2.30235E-10
 -1         2 9.99960E+05 5.35930E-11 6.30112E-11-4.68531E-10 1.94140E-10 1.82456E-10
 -1         3 9.99960E+05-2.82770E-10-3.66046E-10 6.78904E-10 2.79812E-10 3.77744E-10
 -1         4 9.99960E+05 2.67311E-10 8.60404E-10 5.58691E-10-1.08636E-09 1.57456E-09
 -1         5 9.99960E+05 5.95002E-11-1.15756E-10-3.06366E-10 4.20791E-10-7.13691E-10
 -1         6 9.99960E+05-2.73471E-11 8.66638E-10 2.95219E-09 9.79687E-10 1.73873E-09
 -1         7 9.99960E+05 1.09589E-09-2.65288E-10 1.86671E-09-6.20845E-10 2.13580E-09
 -1         8 9.99960E+05-4.06723E-10 5.01219E-10-1.53254E-09 1.02162E-09-3.75125E-09
 -1         9 9.99960E+05-2.79124E-09-2.55633E-09 6.94912E-09-1.41611E-09 5.68680E-09
 -3
    1PSTEP                         3           1           1          
  100CL  101 1.000000000           9                     0    1           1
 -4  ERROR       1    1
 -5  STR(%)      1    1    0    0
 -1         1 9.87765E-14
 -1         2 9.17211E-14
 -1         3 2.34594E-13
 -1         4 3.01621E-13
 -1         5 2.75163E-13
 -1         6 3.56301E-13
 -1         7 4.18036E-13
 -1         8 5.23868E-13
 -1         9 5.92659E-13
 -3
 9999
